# Probe 0 (0.015 0.005 0.005)
# Time            0                
2.398081535e-05   100000           
5.273015017e-05   100000           
8.72692816e-05    100000           
0.0001287451423   100000           
0.0001785999649   100000           
0.0002384865504   100000           
0.0003102623846   100000           
0.000396012275    100000           
0.0004992809602   100000           
0.0006226669218   100000           
0.0007715134786   100000           
0.0009489843732   100000           
0.001164484745    100000           
0.001424352841    100000           
0.001730625954    100000           
0.002090163956    100000           
0.002529599292    100000           
0.003063199342    100000           
0.003693817584    100000           
0.004482090386    100000           
0.005401741988    100000           
0.006551306491    100000           
0.007700870994    99999.99999      
0.008850435497    99999.99998      
0.01              99999.99997      
0.01142857143     99999.99996      
0.01314285714     99999.99997      
0.01542857143     100000           
0.01771428571     100000           
0.02              100000.0001      
0.0225            100000.0001      
0.025             100000.0001      
0.0275            100000.0002      
0.03              100000.0002      
0.03333333333     100000.0002      
0.03666666667     100000.0002      
0.04              100000.0003      
0.045             100000.0004      
0.05              100000.0005      
0.055             100000.0006      
0.06              100000.0006      
0.065             100000.0006      
0.07              100000.0007      
0.075             100000.0007      
0.08              100000.0007      
0.085             100000.0007      
0.09              100000.0007      
0.095             100000.0007      
0.1               100000.0007      
0.105             100000.0007      
0.11              100000.0007      
0.115             100000.0007      
0.12              100000.0007      
0.125             100000.0007      
0.13              100000.0007      
0.135             100000.0007      
0.14              100000.0007      
0.145             100000.0007      
0.15              100000.0007      
0.155             100000.0007      
0.16              100000.0007      
0.165             100000.0007      
0.17              100000.0007      
0.175             100000.0007      
0.18              100000.0007      
0.185             100000.0007      
0.19              100000.0007      
0.195             100000.0007      
0.2               100000.0007      
0.205             100000.0007      
0.21              100000.0007      
0.215             100000.0007      
0.22              100000.0007      
0.225             100000.0007      
0.23              100000.0007      
0.235             100000.0007      
0.24              100000.0007      
0.245             100000.0007      
0.25              100000.0007      
0.255             100000.0007      
0.26              100000.0007      
0.265             100000.0007      
0.27              100000.0007      
0.275             100000.0007      
0.28              100000.0007      
0.285             100000.0007      
0.29              100000.0007      
0.295             100000.0007      
0.3               100000.0007      
0.305             100000.0007      
0.31              100000.0007      
0.315             100000.0007      
0.32              100000.0007      
0.325             100000.0007      
0.33              100000.0007      
0.335             100000.0007      
0.34              100000.0007      
0.345             100000.0007      
0.35              100000.0007      
0.355             100000.0007      
0.36              100000.0007      
0.365             100000.0007      
0.37              100000.0007      
0.375             100000.0007      
0.38              100000.0007      
0.385             100000.0007      
0.39              100000.0007      
0.395             100000.0007      
0.4               100000.0007      
0.405             100000.0007      
0.41              100000.0007      
0.415             100000.0007      
0.42              100000.0007      
0.425             100000.0007      
0.43              100000.0007      
0.435             100000.0007      
0.44              100000.0007      
0.445             100000.0007      
0.45              100000.0007      
0.455             100000.0007      
0.46              100000.0007      
0.465             100000.0007      
0.47              100000.0007      
0.475             100000.0007      
0.48              100000.0007      
0.485             100000.0007      
0.49              100000.0007      
0.495             100000.0007      
0.5               100000.0007      
0.505             100000.0007      
0.51              100000.0007      
0.515             100000.0007      
0.52              100000.0007      
0.525             100000.0007      
0.53              100000.0007      
0.535             100000.0007      
0.54              100000.0007      
0.545             100000.0007      
0.55              100000.0007      
0.555             100000.0007      
0.56              100000.0007      
0.565             100000.0007      
0.57              100000.0007      
0.575             100000.0007      
0.58              100000.0007      
0.585             100000.0007      
0.59              100000.0007      
0.595             100000.0007      
0.6               100000.0007      
0.605             100000.0007      
0.61              100000.0007      
0.615             100000.0007      
0.62              100000.0007      
0.625             100000.0007      
0.63              100000.0007      
0.635             100000.0007      
0.64              100000.0007      
0.645             100000.0007      
0.65              100000.0007      
0.655             100000.0007      
0.66              100000.0007      
0.665             100000.0007      
0.67              100000.0007      
0.675             100000.0007      
0.68              100000.0007      
0.685             100000.0007      
0.69              100000.0007      
0.695             100000.0007      
0.7               100000.0007      
0.705             100000.0007      
0.71              100000.0007      
0.715             100000.0007      
0.72              100000.0007      
0.725             100000.0007      
0.73              100000.0007      
0.735             100000.0007      
0.74              100000.0007      
0.745             100000.0007      
0.75              100000.0007      
0.755             100000.0007      
0.76              100000.0007      
0.765             100000.0007      
0.77              100000.0007      
0.775             100000.0007      
0.78              100000.0007      
0.785             100000.0007      
0.79              100000.0007      
0.795             100000.0007      
0.8               100000.0007      
0.805             100000.0007      
0.81              100000.0007      
0.815             100000.0007      
0.82              100000.0007      
0.825             100000.0007      
0.83              100000.0007      
0.835             100000.0007      
0.84              100000.0007      
0.845             100000.0007      
0.85              100000.0007      
0.855             100000.0007      
0.86              100000.0007      
0.865             100000.0007      
0.87              100000.0007      
0.875             100000.0007      
0.88              100000.0007      
0.885             100000.0007      
0.89              100000.0007      
0.895             100000.0007      
0.9               100000.0007      
0.905             100000.0007      
0.91              100000.0007      
0.915             100000.0007      
0.92              100000.0007      
0.925             100000.0007      
0.93              100000.0007      
0.935             100000.0007      
0.94              100000.0007      
0.945             100000.0007      
0.95              100000.0007      
0.955             100000.0007      
0.96              100000.0007      
0.965             100000.0007      
0.97              100000.0007      
0.975             100000.0007      
0.98              100000.0007      
0.985             100000.0007      
0.99              100000.0007      
0.995             100000.0007      
1                 100000.0007      
1.005             100000.0007      
1.01              100000.0007      
1.015             100000.0007      
1.02              100000.0007      
1.025             100000.0007      
1.03              100000.0007      
1.035             100000.0007      
1.04              100000.0007      
1.045             100000.0007      
1.05              100000.0007      
1.055             100000.0007      
1.06              100000.0007      
1.065             100000.0007      
1.07              100000.0007      
1.075             100000.0007      
1.08              100000.0007      
1.085             100000.0007      
1.09              100000.0007      
1.095             100000.0007      
1.1               100000.0007      
1.105             100000.0007      
1.11              100000.0007      
1.115             100000.0007      
1.12              100000.0007      
1.125             100000.0007      
1.13              100000.0007      
1.135             100000.0007      
1.14              100000.0007      
1.145             100000.0007      
1.15              100000.0007      
1.155             100000.0007      
1.16              100000.0007      
1.165             100000.0007      
1.17              100000.0007      
1.175             100000.0007      
1.18              100000.0007      
1.185             100000.0007      
1.19              100000.0007      
1.195             100000.0007      
1.2               100000.0007      
1.205             100000.0007      
1.21              100000.0007      
1.215             100000.0007      
1.22              100000.0007      
1.225             100000.0007      
1.23              100000.0007      
1.235             100000.0007      
1.24              100000.0007      
1.245             100000.0007      
1.25              100000.0007      
1.255             100000.0007      
1.26              100000.0007      
1.265             100000.0007      
1.27              100000.0007      
1.275             100000.0007      
1.28              100000.0007      
1.285             100000.0007      
1.29              100000.0007      
1.295             100000.0007      
1.3               100000.0007      
1.305             100000.0007      
1.31              100000.0007      
1.315             100000.0007      
1.32              100000.0007      
1.325             100000.0007      
1.33              100000.0007      
1.335             100000.0007      
1.34              100000.0007      
1.345             100000.0007      
1.35              100000.0007      
1.355             100000.0007      
1.36              100000.0007      
1.365             100000.0007      
1.37              100000.0007      
1.375             100000.0007      
1.38              100000.0007      
1.385             100000.0007      
1.39              100000.0007      
1.395             100000.0007      
1.4               100000.0007      
1.405             100000.0007      
1.41              100000.0007      
1.415             100000.0007      
1.42              100000.0007      
1.425             100000.0007      
1.43              100000.0007      
1.435             100000.0007      
1.44              100000.0007      
1.445             100000.0007      
1.45              100000.0007      
1.455             100000.0007      
1.46              100000.0007      
1.465             100000.0007      
1.47              100000.0007      
1.475             100000.0007      
1.48              100000.0007      
1.485             100000.0007      
1.49              100000.0007      
1.495             100000.0007      
1.5               100000.0007      
1.505             100000.0007      
1.51              100000.0007      
1.515             100000.0007      
1.52              100000.0007      
1.525             100000.0007      
1.53              100000.0007      
1.535             100000.0007      
1.54              100000.0007      
1.545             100000.0007      
1.55              100000.0007      
1.555             100000.0007      
1.56              100000.0007      
1.565             100000.0007      
1.57              100000.0007      
1.575             100000.0007      
1.58              100000.0007      
1.585             100000.0007      
1.59              100000.0007      
1.595             100000.0007      
1.6               100000.0007      
1.605             100000.0007      
1.61              100000.0007      
1.615             100000.0007      
1.62              100000.0007      
1.625             100000.0007      
1.63              100000.0007      
1.635             100000.0007      
1.64              100000.0007      
1.645             100000.0007      
1.65              100000.0007      
1.655             100000.0007      
1.66              100000.0007      
1.665             100000.0007      
1.67              100000.0007      
1.675             100000.0007      
1.68              100000.0007      
1.685             100000.0007      
1.69              100000.0007      
1.695             100000.0007      
1.7               100000.0007      
1.705             100000.0007      
1.71              100000.0007      
1.715             100000.0007      
1.72              100000.0007      
1.725             100000.0007      
1.73              100000.0007      
1.735             100000.0007      
1.74              100000.0007      
1.745             100000.0007      
1.75              100000.0007      
1.755             100000.0007      
1.76              100000.0007      
1.765             100000.0007      
1.77              100000.0007      
1.775             100000.0007      
1.78              100000.0007      
1.785             100000.0007      
1.79              100000.0007      
1.795             100000.0007      
1.8               100000.0007      
1.805             100000.0007      
1.81              100000.0007      
1.815             100000.0007      
1.82              100000.0007      
1.825             100000.0007      
1.83              100000.0007      
1.835             100000.0007      
1.84              100000.0007      
1.845             100000.0007      
1.85              100000.0007      
1.855             100000.0007      
1.86              100000.0007      
1.865             100000.0007      
1.87              100000.0007      
1.875             100000.0007      
1.88              100000.0007      
1.885             100000.0007      
1.89              100000.0007      
1.895             100000.0007      
1.9               100000.0007      
1.905             100000.0007      
1.91              100000.0007      
1.915             100000.0007      
1.92              100000.0007      
1.925             100000.0007      
1.93              100000.0007      
1.935             100000.0007      
1.94              100000.0007      
1.945             100000.0007      
1.95              100000.0007      
1.955             100000.0007      
1.96              100000.0007      
1.965             100000.0007      
1.97              100000.0007      
1.975             100000.0007      
1.98              100000.0007      
1.985             100000.0007      
1.99              100000.0007      
1.995             100000.0007      
2                 100000.0007      
2.005             100000.0007      
2.01              100000.0007      
2.015             100000.0007      
2.02              100000.0007      
2.025             100000.0007      
2.03              100000.0007      
2.035             100000.0007      
2.04              100000.0007      
2.045             100000.0007      
2.05              100000.0007      
2.055             100000.0007      
2.06              100000.0007      
2.065             100000.0007      
2.07              100000.0007      
2.075             100000.0007      
2.08              100000.0007      
2.085             100000.0007      
2.09              100000.0007      
2.095             100000.0007      
2.1               100000.0007      
2.105             100000.0007      
2.11              100000.0007      
2.115             100000.0007      
2.12              100000.0007      
2.125             100000.0007      
2.13              100000.0007      
2.135             100000.0007      
2.14              100000.0007      
2.145             100000.0007      
2.15              100000.0007      
2.155             100000.0007      
2.16              100000.0007      
2.165             100000.0007      
2.17              100000.0007      
2.175             100000.0007      
2.18              100000.0007      
2.185             100000.0007      
2.19              100000.0007      
2.195             100000.0007      
2.2               100000.0007      
2.205             100000.0007      
2.21              100000.0007      
2.215             100000.0007      
2.22              100000.0007      
2.225             100000.0007      
2.23              100000.0007      
2.235             100000.0007      
2.24              100000.0007      
2.245             100000.0007      
2.25              100000.0007      
2.255             100000.0007      
2.26              100000.0007      
2.265             100000.0007      
2.27              100000.0007      
2.275             100000.0007      
2.28              100000.0007      
2.285             100000.0007      
2.29              100000.0007      
2.295             100000.0007      
2.3               100000.0007      
2.305             100000.0007      
2.31              100000.0007      
2.315             100000.0007      
2.32              100000.0007      
2.325             100000.0007      
2.33              100000.0007      
2.335             100000.0007      
2.34              100000.0007      
2.345             100000.0007      
2.35              100000.0007      
2.355             100000.0007      
2.36              100000.0007      
2.365             100000.0007      
2.37              100000.0007      
2.375             100000.0007      
2.38              100000.0007      
2.385             100000.0007      
2.39              100000.0007      
2.395             100000.0007      
2.4               100000.0007      
2.405             100000.0007      
2.41              100000.0007      
2.415             100000.0007      
2.42              100000.0007      
2.425             100000.0007      
2.43              100000.0007      
2.435             100000.0007      
2.44              100000.0007      
2.445             100000.0007      
2.45              100000.0007      
2.455             100000.0007      
2.46              100000.0007      
2.465             100000.0007      
2.47              100000.0007      
2.475             100000.0007      
2.48              100000.0007      
2.485             100000.0007      
2.49              100000.0007      
2.495             100000.0007      
2.5               100000.0007      
2.505             100000.0007      
2.51              100000.0007      
2.515             100000.0007      
2.52              100000.0007      
2.525             100000.0007      
2.53              100000.0007      
2.535             100000.0007      
2.54              100000.0007      
2.545             100000.0007      
2.55              100000.0007      
2.555             100000.0007      
2.56              100000.0007      
2.565             100000.0007      
2.57              100000.0007      
2.575             100000.0007      
2.58              100000.0007      
2.585             100000.0007      
2.59              100000.0007      
2.595             100000.0007      
2.6               100000.0007      
2.605             100000.0007      
2.61              100000.0007      
2.615             100000.0007      
2.62              100000.0007      
2.625             100000.0007      
2.63              100000.0007      
2.635             100000.0007      
2.64              100000.0007      
2.645             100000.0007      
2.65              100000.0007      
2.655             100000.0007      
2.66              100000.0007      
2.665             100000.0007      
2.67              100000.0007      
2.675             100000.0007      
2.68              100000.0007      
2.685             100000.0007      
2.69              100000.0007      
2.695             100000.0007      
2.7               100000.0007      
2.705             100000.0007      
2.71              100000.0007      
2.715             100000.0007      
2.72              100000.0007      
2.725             100000.0007      
2.73              100000.0007      
2.735             100000.0007      
2.74              100000.0007      
2.745             100000.0007      
2.75              100000.0007      
2.755             100000.0007      
2.76              100000.0007      
2.765             100000.0007      
2.77              100000.0007      
2.775             100000.0007      
2.78              100000.0007      
2.785             100000.0007      
2.79              100000.0007      
2.795             100000.0007      
2.8               100000.0007      
2.805             100000.0007      
2.81              100000.0007      
2.815             100000.0007      
2.82              100000.0007      
2.825             100000.0007      
2.83              100000.0007      
2.835             100000.0007      
2.84              100000.0007      
2.845             100000.0007      
2.85              100000.0007      
2.855             100000.0007      
2.86              100000.0007      
2.865             100000.0007      
2.87              100000.0007      
2.875             100000.0007      
2.88              100000.0007      
2.885             100000.0007      
2.89              100000.0007      
2.895             100000.0007      
2.9               100000.0007      
2.905             100000.0007      
2.91              100000.0007      
2.915             100000.0007      
2.92              100000.0007      
2.925             100000.0007      
2.93              100000.0007      
2.935             100000.0007      
2.94              100000.0007      
2.945             100000.0007      
2.95              100000.0007      
2.955             100000.0007      
2.96              100000.0007      
2.965             100000.0007      
2.97              100000.0007      
2.975             100000.0007      
2.98              100000.0007      
2.985             100000.0007      
2.99              100000.0007      
2.995             100000.0007      
3                 100000.0007      
3.005             100000.0007      
3.01              100000.0007      
3.015             100000.0007      
3.02              100000.0007      
3.025             100000.0007      
3.03              100000.0007      
3.035             100000.0007      
3.04              100000.0007      
3.045             100000.0007      
3.05              100000.0007      
3.055             100000.0007      
3.06              100000.0007      
3.065             100000.0007      
3.07              100000.0007      
3.075             100000.0007      
3.08              100000.0007      
3.085             100000.0007      
3.09              100000.0007      
3.095             100000.0007      
3.1               100000.0007      
3.105             100000.0007      
3.11              100000.0007      
3.115             100000.0007      
3.12              100000.0007      
3.125             100000.0007      
3.13              100000.0007      
3.135             100000.0007      
3.14              100000.0007      
3.145             100000.0007      
3.15              100000.0007      
3.155             100000.0007      
3.16              100000.0007      
3.165             100000.0007      
3.17              100000.0007      
3.175             100000.0007      
3.18              100000.0007      
3.185             100000.0007      
3.19              100000.0007      
3.195             100000.0007      
3.2               100000.0007      
3.205             100000.0007      
3.21              100000.0007      
3.215             100000.0007      
3.22              100000.0007      
3.225             100000.0007      
3.23              100000.0007      
3.235             100000.0007      
3.24              100000.0007      
3.245             100000.0007      
3.25              100000.0007      
3.255             100000.0007      
3.26              100000.0007      
3.265             100000.0007      
3.27              100000.0007      
3.275             100000.0007      
3.28              100000.0007      
3.285             100000.0007      
3.29              100000.0007      
3.295             100000.0007      
3.3               100000.0007      
3.305             100000.0007      
3.31              100000.0007      
3.315             100000.0007      
3.32              100000.0007      
3.325             100000.0007      
3.33              100000.0007      
3.335             100000.0007      
3.34              100000.0007      
3.345             100000.0007      
3.35              100000.0007      
3.355             100000.0007      
3.36              100000.0007      
3.365             100000.0007      
3.37              100000.0007      
3.375             100000.0007      
3.38              100000.0007      
3.385             100000.0007      
3.39              100000.0007      
3.395             100000.0007      
3.4               100000.0007      
3.405             100000.0007      
3.41              100000.0007      
3.415             100000.0007      
3.42              100000.0007      
3.425             100000.0007      
3.43              100000.0007      
3.435             100000.0007      
3.44              100000.0007      
3.445             100000.0007      
3.45              100000.0007      
3.455             100000.0007      
3.46              100000.0007      
3.465             100000.0007      
3.47              100000.0007      
3.475             100000.0007      
3.48              100000.0007      
3.485             100000.0007      
3.49              100000.0007      
3.495             100000.0007      
3.5               100000.0007      
3.505             100000.0007      
3.51              100000.0007      
3.515             100000.0007      
3.52              100000.0007      
3.525             100000.0007      
3.53              100000.0007      
3.535             100000.0007      
3.54              100000.0007      
3.545             100000.0007      
3.55              100000.0007      
3.555             100000.0007      
3.56              100000.0007      
3.565             100000.0007      
3.57              100000.0007      
3.575             100000.0007      
3.58              100000.0007      
3.585             100000.0007      
3.59              100000.0007      
3.595             100000.0007      
3.6               100000.0007      
3.605             100000.0007      
3.61              100000.0007      
3.615             100000.0007      
3.62              100000.0007      
3.625             100000.0007      
3.63              100000.0007      
3.635             100000.0007      
3.64              100000.0007      
3.645             100000.0007      
3.65              100000.0007      
3.655             100000.0007      
3.66              100000.0007      
3.665             100000.0007      
3.67              100000.0007      
3.675             100000.0007      
3.68              100000.0007      
3.685             100000.0007      
3.69              100000.0007      
3.695             100000.0007      
3.7               100000.0007      
3.705             100000.0007      
3.71              100000.0007      
3.715             100000.0007      
3.72              100000.0007      
3.725             100000.0007      
3.73              100000.0007      
3.735             100000.0007      
3.74              100000.0007      
3.745             100000.0007      
3.75              100000.0007      
3.755             100000.0007      
3.76              100000.0007      
3.765             100000.0007      
3.77              100000.0007      
3.775             100000.0007      
3.78              100000.0007      
3.785             100000.0007      
3.79              100000.0007      
3.795             100000.0007      
3.8               100000.0007      
3.805             100000.0007      
3.81              100000.0007      
3.815             100000.0007      
3.82              100000.0007      
3.825             100000.0007      
3.83              100000.0007      
3.835             100000.0007      
3.84              100000.0007      
3.845             100000.0007      
3.85              100000.0007      
3.855             100000.0007      
3.86              100000.0007      
3.865             100000.0007      
3.87              100000.0007      
3.875             100000.0007      
3.88              100000.0007      
3.885             100000.0007      
3.89              100000.0007      
3.895             100000.0007      
3.9               100000.0007      
3.905             100000.0007      
3.91              100000.0007      
3.915             100000.0007      
3.92              100000.0007      
3.925             100000.0007      
3.93              100000.0007      
3.935             100000.0007      
3.94              100000.0007      
3.945             100000.0007      
3.95              100000.0007      
3.955             100000.0007      
3.96              100000.0007      
3.965             100000.0007      
3.97              100000.0007      
3.975             100000.0007      
3.98              100000.0007      
3.985             100000.0007      
3.99              100000.0007      
3.995             100000.0007      
4                 100000.0007      
