# Probe 0 (0.015 0.005 0.005)
# Time            0                
2.398081535e-05   (1.93268402e-11 4.334684174e-12 0)
5.273015017e-05   (-2.455399308e-11 -1.779120552e-11 0)
8.72692816e-05    (2.206192069e-12 -1.476474664e-11 0)
0.0001287451423   (-3.966612052e-11 -2.262045674e-11 0)
0.0001785999649   (-9.66337192e-11 -2.10455129e-11 0)
0.0002384865504   (6.319039825e-11 4.251463253e-11 0)
0.0003102623846   (-7.70795689e-11 -3.413044385e-11 0)
0.000396012275    (-3.944307389e-12 5.745845128e-11 0)
0.0004992809602   (2.523068684e-11 -1.534124109e-11 0)
0.0006226669218   (4.0528039e-11 1.145744222e-11 0)
0.0007715134786   (1.162009296e-10 -2.638573234e-11 0)
0.0009489843732   (2.686563565e-10 -2.188839508e-11 0)
0.001164484745    (-2.610744534e-11 -5.768217474e-12 0)
0.001424352841    (4.02301903e-10 4.162179932e-12 0)
0.001730625954    (1.264662629e-10 -4.654026175e-11 0)
0.002090163956    (-4.578574642e-11 4.345427074e-11 0)
0.002529599292    (-2.602471235e-10 1.956734286e-11 0)
0.003063199342    (-2.934800681e-11 -1.728321948e-10 0)
0.003693817584    (-4.873382748e-10 -6.851654304e-11 0)
0.004482090386    (2.90642685e-10 1.179686265e-11 0)
0.005401741988    (9.479987953e-10 1.280975255e-10 0)
0.006551306491    (-5.593802313e-10 9.097710535e-11 0)
0.007700870994    (-5.909560314e-10 6.812917365e-11 0)
0.008850435497    (-4.571414751e-10 7.302959778e-11 0)
0.01              (-5.972561068e-10 6.233935323e-11 0)
0.01142857143     (-7.792564379e-10 2.581753886e-12 0)
0.01314285714     (-5.164681277e-11 -4.339718701e-11 0)
0.01542857143     (-2.435063045e-10 -1.296934343e-10 0)
0.01771428571     (-2.18890577e-10 1.984137468e-11 0)
0.02              (-2.97260791e-10 -4.019488297e-11 0)
0.0225            (-4.295492938e-10 -3.487161334e-10 0)
0.025             (-5.507885918e-10 -3.413837993e-11 0)
0.0275            (-4.467728866e-10 -6.431938543e-12 0)
0.03              (-4.25342075e-10 -7.102859632e-11 0)
0.03333333333     (-1.329387556e-10 -1.656343013e-10 0)
0.03666666667     (-2.290323349e-10 -8.88290707e-11 0)
0.04              (-4.751992426e-11 -1.985574076e-11 0)
0.045             (1.298533643e-10 4.58796127e-11 0)
0.05              (-4.182075467e-11 1.38433444e-11 0)
0.055             (-1.459508594e-10 -1.795242996e-11 0)
0.06              (-8.544885595e-11 -8.338743423e-11 0)
0.065             (-1.032717991e-10 -1.08547879e-11 0)
0.07              (-1.644461999e-10 4.125332169e-11 0)
0.075             (-1.58171598e-10 -6.401643505e-11 0)
0.08              (8.237443303e-11 -1.323099324e-10 0)
0.085             (-1.193677131e-10 -1.032969913e-10 0)
0.09              (-1.408331176e-10 -1.171179926e-11 0)
0.095             (-7.205044211e-11 -3.091269065e-11 0)
0.1               (-7.781207045e-11 -1.663882202e-10 0)
0.105             (-1.615523752e-10 -1.178621647e-11 0)
0.11              (-1.84978162e-10 1.224789855e-10 0)
0.115             (-1.096204873e-10 -3.032401018e-11 0)
0.12              (-1.020906891e-10 2.988389594e-11 0)
0.125             (-1.475417627e-10 -1.119038922e-10 0)
0.13              (1.373963495e-11 1.316132672e-10 0)
0.135             (3.618733455e-11 9.123299841e-11 0)
0.14              (-1.31226794e-10 -1.164493266e-11 0)
0.145             (-1.417225229e-10 -1.342717298e-10 0)
0.15              (-1.002791517e-10 6.363666908e-11 0)
0.155             (-4.929094086e-11 -2.11714182e-11 0)
0.16              (-8.757479324e-11 -1.377849732e-10 0)
0.165             (-9.569490266e-11 -6.854064818e-12 0)
0.17              (-1.646193223e-10 5.551576707e-11 0)
0.175             (-8.30262296e-11 3.919985651e-11 0)
0.18              (-1.319449272e-10 -4.250182013e-11 0)
0.185             (-7.003772857e-11 -1.68125903e-10 0)
0.19              (-1.109606909e-11 -1.977014618e-11 0)
0.195             (-5.478998392e-11 6.461000902e-12 0)
0.2               (-4.200408017e-11 4.858604463e-11 0)
0.205             (-1.112567634e-10 6.517056363e-11 0)
0.21              (-1.515748634e-10 1.987366586e-12 0)
0.215             (-1.621329648e-10 5.820764373e-12 0)
0.22              (-1.430327797e-10 -3.793866162e-11 0)
0.225             (-1.803245541e-11 -2.307666015e-11 0)
0.23              (-2.247553849e-10 -1.25005205e-10 0)
0.235             (-1.964111695e-10 1.206104284e-11 0)
0.24              (-9.022870464e-12 -8.870589006e-11 0)
0.245             (-1.489695472e-10 -2.208356845e-11 0)
0.25              (-8.668608588e-11 -4.123596451e-11 0)
0.255             (-7.052321309e-11 -5.323047179e-11 0)
0.26              (-5.01578588e-11 -4.005505366e-11 0)
0.265             (-2.390652702e-11 8.473688641e-11 0)
0.27              (-5.168554294e-11 1.042363861e-11 0)
0.275             (-2.119179758e-10 -9.119344904e-11 0)
0.28              (-9.412669444e-11 -1.037219884e-10 0)
0.285             (-1.049233933e-10 -1.052594486e-10 0)
0.29              (-8.400732589e-11 1.90024254e-11 0)
0.295             (-7.571582444e-11 3.261617239e-11 0)
0.3               (-7.685052474e-11 -6.962066927e-11 0)
0.305             (3.274042647e-11 -1.189374713e-10 0)
0.31              (-1.011839624e-10 7.218065258e-11 0)
0.315             (-1.467381749e-10 -1.859087361e-10 0)
0.32              (-1.257430158e-10 2.699675273e-12 0)
0.325             (-3.889478742e-11 -7.178301414e-11 0)
0.33              (-8.274999077e-11 -1.217868042e-10 0)
0.335             (-1.004220324e-10 -1.231316513e-10 0)
0.34              (-1.245549529e-11 -1.89849848e-11 0)
0.345             (-1.695744171e-10 4.1580863e-11 0)
0.35              (-1.138811548e-10 -2.73259291e-11 0)
0.355             (-1.331358299e-10 -1.273769638e-11 0)
0.36              (-1.345903154e-10 -1.408669117e-10 0)
0.365             (-6.22584335e-11 4.409296077e-12 0)
0.37              (-8.533303571e-11 -1.433773042e-11 0)
0.375             (-1.319323844e-10 1.620367365e-11 0)
0.38              (-9.606508247e-12 9.915766976e-12 0)
0.385             (-9.066507697e-11 -3.776623609e-11 0)
0.39              (5.413200392e-12 -7.830279687e-13 0)
0.395             (-3.820230324e-11 1.360804393e-11 0)
0.4               (-1.223502764e-10 -6.337031682e-11 0)
0.405             (-6.957898651e-11 -3.053270813e-11 0)
0.41              (-9.436269052e-11 -7.181763661e-11 0)
0.415             (-1.254083364e-10 -1.898263363e-11 0)
0.42              (-1.099681686e-10 -1.092985428e-10 0)
0.425             (-2.088755101e-10 -1.603141896e-10 0)
0.43              (-4.757037551e-11 -1.00121314e-12 0)
0.435             (-1.106286846e-10 -1.014266752e-10 0)
0.44              (-1.327133366e-10 -1.091851947e-10 0)
0.445             (-9.849470423e-11 -1.329431363e-10 0)
0.45              (-1.89800716e-11 -2.108179849e-10 0)
0.455             (-2.300218546e-10 -4.397361267e-11 0)
0.46              (-1.31535758e-10 -1.316301931e-10 0)
0.465             (-8.972132847e-11 -9.305007786e-11 0)
0.47              (-1.327045654e-10 -6.314097769e-11 0)
0.475             (-2.333097926e-10 -4.626397989e-11 0)
0.48              (-2.282708559e-10 -7.41871886e-11 0)
0.485             (-1.365678413e-10 3.426172789e-12 0)
0.49              (-1.384783496e-10 1.21311677e-10 0)
0.495             (-1.160547807e-10 -1.861560943e-11 0)
0.5               (-1.10320184e-10 3.982624524e-11 0)
0.505             (-1.730065711e-10 -8.567102349e-11 0)
0.51              (-7.024779481e-11 -1.031234999e-10 0)
0.515             (-1.46348763e-10 7.357182144e-11 0)
0.52              (-1.160942698e-10 -1.633985604e-10 0)
0.525             (-7.826404186e-11 1.058732786e-12 0)
0.53              (-1.58233617e-10 2.920606269e-11 0)
0.535             (-2.266804924e-10 -1.120735505e-10 0)
0.54              (-2.997080426e-11 -5.45947902e-11 0)
0.545             (-7.217780606e-11 -4.920736683e-13 0)
0.55              (-9.113879323e-11 -1.718499212e-11 0)
0.555             (-9.915452208e-11 3.84383073e-11 0)
0.56              (-2.261957154e-10 1.002775886e-10 0)
0.565             (-1.28555137e-10 -1.543200252e-11 0)
0.57              (-1.284212176e-10 6.272307224e-11 0)
0.575             (-6.242137372e-11 -1.361565065e-11 0)
0.58              (-1.394052769e-10 -5.456335809e-11 0)
0.585             (-1.21259713e-10 -3.559549715e-11 0)
0.59              (-8.41171814e-11 -4.564405411e-11 0)
0.595             (-1.472934498e-11 1.336521112e-11 0)
0.6               (-2.026003002e-10 -9.073147233e-11 0)
0.605             (-8.569408466e-11 -1.668460336e-10 0)
0.61              (-1.962828325e-10 -2.382983136e-11 0)
0.615             (-1.208449924e-10 -1.564034419e-10 0)
0.62              (-1.751375533e-10 -6.901931289e-11 0)
0.625             (-1.08174959e-10 -1.313702616e-10 0)
0.63              (-9.816496589e-11 -1.065135515e-10 0)
0.635             (-1.3173371e-10 -1.042325616e-10 0)
0.64              (-2.162724336e-10 -2.139517916e-10 0)
0.645             (-1.298233105e-10 -1.042397632e-10 0)
0.65              (-8.863745424e-11 -9.510282046e-11 0)
0.655             (-9.245908598e-11 -4.993649822e-12 0)
0.66              (-6.063146784e-11 -5.646342872e-11 0)
0.665             (-1.40652583e-10 -1.053044239e-11 0)
0.67              (-1.000693531e-10 -1.909367873e-12 0)
0.675             (-1.897556445e-10 -1.054956298e-10 0)
0.68              (-9.771751378e-11 -2.728839492e-11 0)
0.685             (-1.386231363e-10 4.004845599e-11 0)
0.69              (-2.266433592e-10 -2.258359663e-10 0)
0.695             (-1.741661063e-10 -5.065439696e-11 0)
0.7               (-1.347118982e-10 1.0138483e-11 0)
0.705             (-8.585063894e-11 -7.955201067e-11 0)
0.71              (-1.662373054e-10 -8.006523994e-11 0)
0.715             (-1.940417991e-10 -1.751598181e-10 0)
0.72              (-2.267637401e-10 -3.421794216e-13 0)
0.725             (-8.413101486e-11 -1.173510704e-10 0)
0.73              (-1.171780228e-10 1.681977543e-11 0)
0.735             (-1.571324498e-10 -1.063207292e-10 0)
0.74              (-1.480278554e-10 -1.88855905e-12 0)
0.745             (-7.441057557e-11 -1.464695869e-10 0)
0.75              (-2.502033535e-10 -1.184179617e-10 0)
0.755             (-1.0343263e-10 -9.043129268e-11 0)
0.76              (-2.532628434e-10 -3.941720267e-11 0)
0.765             (-1.95930246e-10 -1.752445417e-11 0)
0.77              (-1.445595491e-10 -1.794425382e-10 0)
0.775             (-8.880421672e-11 -1.158410117e-10 0)
0.78              (-1.031871323e-10 -2.214606125e-10 0)
0.785             (-1.603286508e-10 -1.298337888e-10 0)
0.79              (-1.577740441e-10 4.807687016e-11 0)
0.795             (-1.35787959e-10 -1.332084005e-10 0)
0.8               (-1.909212618e-10 5.579901125e-11 0)
0.805             (-2.044933617e-10 -3.017350275e-11 0)
0.81              (-8.374577794e-11 -1.06715074e-10 0)
0.815             (-1.507210113e-10 2.026175245e-11 0)
0.82              (-1.743807681e-10 2.24354734e-11 0)
0.825             (-6.124392976e-11 -2.216860414e-10 0)
0.83              (-7.764323551e-11 -4.038243783e-11 0)
0.835             (-1.896604903e-10 2.931909943e-11 0)
0.84              (-1.71722975e-10 -5.061130986e-11 0)
0.845             (1.435657911e-11 -6.766559047e-11 0)
0.85              (-7.020141654e-11 -9.619876663e-11 0)
0.855             (-7.921924337e-11 -8.652709024e-11 0)
0.86              (-4.544671724e-11 -9.904862902e-11 0)
0.865             (-7.99363801e-11 8.375229571e-11 0)
0.87              (-1.243563047e-10 -1.46328222e-10 0)
0.875             (-9.441125964e-11 -1.023359922e-10 0)
0.88              (-8.333152179e-11 -1.708657723e-11 0)
0.885             (-2.203639406e-10 2.004277425e-11 0)
0.89              (-1.25738969e-10 -1.992615127e-11 0)
0.895             (-1.269068953e-10 -1.531365029e-10 0)
0.9               (-1.096836884e-10 -4.334998143e-11 0)
0.905             (-1.807269763e-10 -8.413293052e-11 0)
0.91              (-1.777402096e-11 -1.54919455e-11 0)
0.915             (-4.416817226e-11 -8.75966707e-11 0)
0.92              (-2.126231171e-10 1.473273038e-11 0)
0.925             (-2.076355343e-10 3.316965719e-11 0)
0.93              (-1.525532637e-10 -9.54788912e-11 0)
0.935             (-1.172898258e-10 -3.297434782e-11 0)
0.94              (-2.17452197e-10 6.789941882e-11 0)
0.945             (-9.313687162e-11 -1.347037207e-10 0)
0.95              (-9.532185045e-11 -1.214935868e-10 0)
0.955             (-1.091063354e-10 -1.510004227e-10 0)
0.96              (-2.073413957e-10 6.582722649e-11 0)
0.965             (-1.423973965e-10 1.048765665e-10 0)
0.97              (-1.443446446e-10 -5.359966367e-11 0)
0.975             (-1.486119344e-10 -4.437278702e-11 0)
0.98              (-1.267991435e-10 -1.18083307e-10 0)
0.985             (-1.900199764e-10 -1.045118917e-10 0)
0.99              (-1.195510302e-10 -1.884713161e-10 0)
0.995             (-1.395349787e-10 1.376113419e-11 0)
1                 (-3.990484202e-11 -8.69821327e-11 0)
1.005             (-2.299085623e-10 -2.601097413e-11 0)
1.01              (-3.463508071e-10 6.456752322e-12 0)
1.015             (-1.061589061e-10 -4.38544337e-11 0)
1.02              (-8.730497858e-11 -2.312941062e-11 0)
1.025             (-2.396557013e-10 -1.385421916e-10 0)
1.03              (-7.931343642e-11 -9.091024429e-11 0)
1.035             (-1.675871447e-10 -3.521016569e-11 0)
1.04              (-6.544132042e-11 -1.452115677e-11 0)
1.045             (-8.012655087e-11 -7.695176637e-11 0)
1.05              (-2.084699282e-10 -1.054359916e-12 0)
1.055             (-2.220445698e-10 -2.537813219e-11 0)
1.06              (-1.69457247e-10 -7.192835119e-11 0)
1.065             (-1.63885508e-10 -1.051180974e-10 0)
1.07              (-1.452996136e-10 1.928810998e-11 0)
1.075             (-7.29233715e-11 -8.474396499e-11 0)
1.08              (-2.213340505e-10 5.79981323e-11 0)
1.085             (-2.702363574e-10 -1.022852174e-10 0)
1.09              (-1.523824687e-11 -8.604584972e-11 0)
1.095             (-9.351912219e-11 -8.273609216e-11 0)
1.1               (-1.663535233e-10 -1.734818907e-10 0)
1.105             (-9.109170897e-11 -4.563435171e-11 0)
1.11              (-1.649052491e-10 -5.790095014e-11 0)
1.115             (-1.771489782e-10 1.567065601e-11 0)
1.12              (-9.513465198e-11 2.388302309e-11 0)
1.125             (-1.653678774e-10 -1.353107018e-10 0)
1.13              (-6.659776126e-11 -2.910771541e-11 0)
1.135             (-2.746644432e-10 5.146195353e-11 0)
1.14              (-5.780801196e-11 5.283265533e-11 0)
1.145             (-2.126679751e-10 4.868072039e-11 0)
1.15              (-1.190859897e-10 -1.055929688e-11 0)
1.155             (-1.380720723e-10 -1.777673793e-10 0)
1.16              (-1.217837745e-10 3.697915104e-11 0)
1.165             (-5.952923538e-11 -1.59375767e-10 0)
1.17              (-1.404838157e-10 -5.090157629e-11 0)
1.175             (-2.986936364e-10 -3.66339924e-11 0)
1.18              (-5.768978838e-11 -7.844727625e-11 0)
1.185             (-1.443242737e-10 -9.339863134e-11 0)
1.19              (-8.052769059e-11 -4.005694595e-11 0)
1.195             (-5.099141408e-11 -9.134577551e-11 0)
1.2               (-7.558261004e-11 -7.552796045e-11 0)
1.205             (-2.043848927e-10 -1.541424898e-11 0)
1.21              (-8.360123743e-11 -1.155321146e-10 0)
1.215             (-2.027234816e-10 -9.917674498e-11 0)
1.22              (-1.91763458e-10 1.254225023e-12 0)
1.225             (-6.863796309e-11 -2.548637116e-11 0)
1.23              (-2.100598966e-10 7.708539765e-11 0)
1.235             (-1.333878219e-10 3.362002553e-11 0)
1.24              (-1.908675456e-10 3.688471976e-11 0)
1.245             (-3.525644715e-11 5.933032361e-11 0)
1.25              (-1.267153518e-11 2.236139579e-11 0)
1.255             (-2.186496901e-10 8.684748084e-11 0)
1.26              (-8.307678069e-11 -7.179582612e-11 0)
1.265             (-1.206494593e-10 -6.362575733e-12 0)
1.27              (-2.360305607e-10 5.639859013e-11 0)
1.275             (-2.115997568e-10 1.568465192e-11 0)
1.28              (-2.08794076e-10 -5.948170034e-11 0)
1.285             (-2.183520088e-10 4.413063039e-12 0)
1.29              (-7.584632685e-11 6.480152567e-12 0)
1.295             (-4.474421173e-11 -4.866171467e-11 0)
1.3               (-1.12805289e-10 -2.953421719e-11 0)
1.305             (-9.623787656e-11 -1.072762559e-10 0)
1.31              (-1.622380998e-10 -2.968216918e-11 0)
1.315             (-1.464689846e-10 -1.517307987e-10 0)
1.32              (-1.021759407e-10 7.482743647e-12 0)
1.325             (-1.825421993e-10 -3.06992874e-11 0)
1.33              (-2.033582208e-10 -7.874509296e-11 0)
1.335             (-1.100904275e-10 1.076943756e-10 0)
1.34              (-1.755729753e-10 -2.746974944e-11 0)
1.345             (-2.389945994e-10 2.104352468e-11 0)
1.35              (-1.455843605e-10 -6.255664903e-11 0)
1.355             (-1.667907308e-10 -1.683022143e-10 0)
1.36              (-2.104647099e-10 -8.384994969e-11 0)
1.365             (-2.898261984e-10 -6.533177239e-11 0)
1.37              (-1.736241684e-10 3.643861746e-11 0)
1.375             (-1.931668353e-10 -4.122818696e-11 0)
1.38              (-6.199069452e-11 -9.580518479e-11 0)
1.385             (-1.683323575e-10 -3.562706019e-11 0)
1.39              (-1.417890829e-10 6.73543389e-13 0)
1.395             (-2.654407061e-10 -1.660350352e-10 0)
1.4               (-1.395168528e-10 -3.959766015e-11 0)
1.405             (-1.40845157e-10 -6.777668761e-11 0)
1.41              (-1.985208147e-10 -3.166153821e-11 0)
1.415             (-1.302875037e-10 -1.571216261e-10 0)
1.42              (-4.711530512e-11 -6.43167219e-11 0)
1.425             (-1.03298268e-10 -1.05479986e-10 0)
1.43              (-2.440911859e-11 1.261614127e-11 0)
1.435             (-1.839970696e-10 1.592075145e-11 0)
1.44              (-1.266601681e-10 2.310977204e-11 0)
1.445             (-1.456894942e-10 -5.769826584e-11 0)
1.45              (-2.198264093e-10 1.68264921e-11 0)
1.455             (-2.334977512e-10 -1.203025836e-11 0)
1.46              (-1.820545982e-11 -1.116754201e-10 0)
1.465             (-1.539097535e-10 -3.415236264e-11 0)
1.47              (-7.975248385e-11 1.920201874e-11 0)
1.475             (-1.546610102e-10 -8.883520131e-11 0)
1.48              (-1.394989483e-10 2.653893339e-11 0)
1.485             (-2.16467286e-10 1.854863296e-12 0)
1.49              (-1.43710366e-10 -7.760224202e-11 0)
1.495             (-2.424136245e-10 -8.445406047e-11 0)
1.5               (-5.542198838e-11 -2.022247179e-11 0)
1.505             (-1.933296938e-10 9.835220879e-11 0)
1.51              (-1.005144022e-10 -2.346860223e-11 0)
1.515             (-1.630228111e-10 4.717317583e-11 0)
1.52              (-2.860533201e-10 -4.108390366e-11 0)
1.525             (-2.438794806e-10 4.053904172e-11 0)
1.53              (-1.239371786e-10 -7.131454771e-11 0)
1.535             (-1.286651286e-10 9.711598505e-11 0)
1.54              (-1.947742107e-10 -1.143740932e-11 0)
1.545             (-1.129121291e-10 2.26930331e-11 0)
1.55              (-8.716936223e-11 1.315232083e-12 0)
1.555             (-2.131474704e-10 -1.704608495e-10 0)
1.56              (-1.468224444e-10 -8.719033441e-12 0)
1.565             (-1.134161421e-10 -2.549356053e-11 0)
1.57              (-2.18449044e-10 -3.839843782e-11 0)
1.575             (-1.029948269e-10 4.817379486e-11 0)
1.58              (-1.119637696e-10 -2.584682867e-11 0)
1.585             (-1.468487258e-10 -1.338866596e-10 0)
1.59              (-1.658003268e-10 -1.006733558e-10 0)
1.595             (-1.047416293e-10 -6.939407938e-11 0)
1.6               (-1.610827515e-10 -5.879901367e-11 0)
1.605             (-1.306670571e-10 -9.888051844e-11 0)
1.61              (-1.344168829e-10 -7.785201996e-12 0)
1.615             (-2.048680451e-10 -1.307868611e-10 0)
1.62              (-3.070344719e-10 -5.044309526e-11 0)
1.625             (-2.662935897e-10 2.990198362e-11 0)
1.63              (-8.783591736e-11 -4.972833607e-11 0)
1.635             (-1.617412718e-10 9.966025101e-11 0)
1.64              (-7.311028674e-11 4.627324219e-11 0)
1.645             (-1.97205295e-10 -2.600298219e-11 0)
1.65              (-1.770626157e-10 6.167986351e-11 0)
1.655             (-1.31630419e-10 -1.585471023e-10 0)
1.66              (-1.247287457e-10 -8.668721144e-11 0)
1.665             (-2.132627446e-10 1.881911606e-11 0)
1.67              (-2.629943661e-10 -1.561783047e-10 0)
1.675             (-1.663230316e-10 -9.740692482e-11 0)
1.68              (-1.713221503e-10 -3.183514531e-11 0)
1.685             (-7.728373046e-11 1.934389852e-11 0)
1.69              (-1.007131422e-10 9.086269026e-11 0)
1.695             (-1.552047248e-10 -1.272736236e-10 0)
1.7               (-6.354370222e-11 -2.410964236e-11 0)
1.705             (-1.823852757e-11 -5.100927802e-11 0)
1.71              (-8.142936896e-11 2.346703058e-11 0)
1.715             (-1.580432709e-10 -6.519530747e-11 0)
1.72              (-1.684974267e-10 -3.110155205e-11 0)
1.725             (-1.929338135e-10 -3.946497641e-11 0)
1.73              (-5.818285678e-11 -8.761827516e-11 0)
1.735             (-6.225541849e-11 1.812842434e-11 0)
1.74              (-2.616711476e-10 -6.801168735e-12 0)
1.745             (-2.090778402e-11 -1.165706064e-10 0)
1.75              (-1.053030807e-10 -5.3408466e-11 0)
1.755             (-1.246591717e-10 -3.274253182e-12 0)
1.76              (-8.027157431e-12 -1.668446329e-11 0)
1.765             (-2.781607347e-10 7.342746266e-11 0)
1.77              (-1.90912424e-10 -8.615135725e-11 0)
1.775             (-1.644603832e-10 -1.374146687e-10 0)
1.78              (-1.116911824e-10 -1.484518316e-10 0)
1.785             (-1.175001658e-10 -8.943541923e-11 0)
1.79              (4.321467004e-11 6.353222337e-11 0)
1.795             (2.102832893e-11 -1.985028805e-10 0)
1.8               (-4.964396691e-11 3.676674948e-11 0)
1.805             (-1.600160522e-10 -5.389804253e-11 0)
1.81              (-2.750431001e-10 -1.160898484e-10 0)
1.815             (-2.205101664e-11 5.136196651e-11 0)
1.82              (-1.411664441e-10 7.283366604e-11 0)
1.825             (-1.221303757e-10 1.457991834e-11 0)
1.83              (-9.908245307e-11 1.4808946e-11 0)
1.835             (-1.399999238e-10 1.061236128e-10 0)
1.84              (-2.121640562e-10 2.456980444e-11 0)
1.845             (1.955698383e-11 3.697581267e-11 0)
1.85              (-2.132418487e-10 1.019660736e-10 0)
1.855             (-1.901202226e-10 -4.252131118e-12 0)
1.86              (-3.482868637e-11 2.761884365e-11 0)
1.865             (-1.433881705e-10 -2.434495356e-11 0)
1.87              (-1.427133976e-10 4.756860238e-11 0)
1.875             (-1.4207396e-10 -4.731782897e-11 0)
1.88              (-6.045324177e-11 2.701737003e-11 0)
1.885             (-3.2781074e-10 8.003413976e-11 0)
1.89              (-1.035800411e-10 1.308609328e-10 0)
1.895             (-2.340780945e-10 -2.658623563e-11 0)
1.9               (8.007448908e-12 9.707459509e-11 0)
1.905             (-1.479705612e-10 -1.644096191e-10 0)
1.91              (-2.842764888e-11 -6.656410906e-11 0)
1.915             (-1.586082656e-11 4.469434565e-11 0)
1.92              (-1.269096569e-10 -8.50652191e-11 0)
1.925             (-1.020559428e-10 -7.576357418e-11 0)
1.93              (-1.425195494e-10 8.89750599e-11 0)
1.935             (-1.515676865e-10 -6.295004214e-11 0)
1.94              (-7.158686974e-11 7.519681798e-11 0)
1.945             (-2.111128005e-10 -1.161061957e-10 0)
1.95              (-1.765524697e-10 -2.874938077e-11 0)
1.955             (-5.939109113e-11 7.896977639e-11 0)
1.96              (-1.467735826e-10 1.236849771e-10 0)
1.965             (-3.344511608e-11 -3.122830524e-11 0)
1.97              (-2.193828074e-11 -6.658464109e-11 0)
1.975             (-7.423763827e-11 -7.905338562e-11 0)
1.98              (-1.675182958e-10 -3.6292769e-11 0)
1.985             (-6.370651226e-11 -5.509541999e-11 0)
1.99              (-1.440033106e-10 1.686845129e-10 0)
1.995             (-1.580188957e-10 2.175634595e-12 0)
2                 (-4.650800793e-11 -1.276890163e-10 0)
2.005             (-1.539560833e-10 -1.798534796e-10 0)
2.01              (-2.322045529e-10 -3.076434257e-11 0)
2.015             (-1.32645486e-10 -6.514180988e-11 0)
2.02              (-1.143885604e-10 3.596398144e-11 0)
2.025             (-4.083332895e-11 3.887983815e-11 0)
2.03              (-2.712543681e-10 5.232256405e-11 0)
2.035             (-1.663782068e-10 6.490018283e-11 0)
2.04              (-1.520583849e-10 -4.518918841e-11 0)
2.045             (-8.188855866e-11 -2.365326492e-11 0)
2.05              (-1.003991771e-10 1.030216203e-11 0)
2.055             (-9.059959196e-11 -1.150175312e-10 0)
2.06              (-6.320660496e-11 -4.055410267e-11 0)
2.065             (-9.527010148e-11 4.158261966e-11 0)
2.07              (-2.54089802e-11 -4.642546757e-11 0)
2.075             (-1.428770785e-10 3.854086988e-12 0)
2.08              (-4.84838006e-11 -7.433979828e-11 0)
2.085             (-1.965350644e-10 -3.53019886e-11 0)
2.09              (-1.606292781e-10 -2.009150193e-12 0)
2.095             (-1.797464678e-10 -7.942818473e-11 0)
2.1               (-3.110772534e-11 4.406492749e-11 0)
2.105             (-1.86173855e-10 -1.921271335e-11 0)
2.11              (-1.013513679e-10 9.721629144e-11 0)
2.115             (-9.168270215e-12 -9.559226024e-11 0)
2.12              (-5.368518722e-11 9.886576489e-11 0)
2.125             (-3.974568009e-11 7.48547986e-11 0)
2.13              (-1.507540901e-10 -3.753169679e-11 0)
2.135             (-1.247421858e-10 -6.34441885e-11 0)
2.14              (-3.276090376e-11 5.123128391e-11 0)
2.145             (-1.307866793e-10 -1.165464789e-10 0)
2.15              (-1.459154126e-10 -1.365937777e-10 0)
2.155             (-2.073339756e-10 6.672287908e-11 0)
2.16              (-1.616825731e-10 -2.479486355e-11 0)
2.165             (-2.304474525e-10 -1.113435816e-10 0)
2.17              (-2.455250677e-10 -2.024364591e-12 0)
2.175             (-1.406774409e-10 3.361104802e-11 0)
2.18              (-1.304684674e-10 5.843709158e-11 0)
2.185             (-1.024949791e-10 5.96702966e-11 0)
2.19              (-2.212368857e-10 -3.704007291e-11 0)
2.195             (-1.489793379e-10 -3.615370017e-11 0)
2.2               (-1.504671085e-10 -2.423717406e-11 0)
2.205             (-1.701434314e-10 -6.759002568e-11 0)
2.21              (-1.68384957e-10 -5.775559272e-11 0)
2.215             (-1.827962116e-10 -1.696210759e-10 0)
2.22              (-1.463416807e-10 -7.01688109e-11 0)
2.225             (-6.087134484e-11 -1.527842177e-11 0)
2.23              (-1.241058839e-10 -6.756175343e-11 0)
2.235             (-1.575735533e-10 -1.06306163e-10 0)
2.24              (-1.58964933e-10 -1.332173439e-10 0)
2.245             (-1.26118899e-10 -5.207423072e-11 0)
2.25              (-1.244050316e-10 -8.315946813e-11 0)
2.255             (-1.721126688e-10 -9.992775807e-11 0)
2.26              (-2.065287951e-10 -1.474359367e-11 0)
2.265             (-1.149348632e-10 -8.187717583e-11 0)
2.27              (-3.778859736e-11 -7.363830255e-11 0)
2.275             (-1.411822385e-10 -2.096532648e-11 0)
2.28              (-1.776440235e-10 -1.033565881e-11 0)
2.285             (-2.528459772e-10 -4.561439866e-11 0)
2.29              (-5.248778656e-11 -2.380317002e-11 0)
2.295             (-1.614264693e-10 5.23478726e-11 0)
2.3               (-1.392381464e-10 3.777748958e-11 0)
2.305             (-1.035018763e-10 1.250589995e-10 0)
2.31              (-1.936967753e-10 -1.434359668e-10 0)
2.315             (-1.399960464e-11 2.763169169e-11 0)
2.32              (-4.047980104e-11 -6.720331868e-11 0)
2.325             (-1.573465916e-10 -9.938486172e-11 0)
2.33              (-1.627103531e-10 -1.079700932e-10 0)
2.335             (-1.647568001e-10 -2.329220212e-11 0)
2.34              (-1.35687291e-10 5.50003446e-11 0)
2.345             (-1.028077706e-10 8.580301998e-11 0)
2.35              (-1.267803299e-10 -6.924892289e-11 0)
2.355             (-1.380499808e-10 6.121018573e-11 0)
2.36              (-6.744605786e-11 -1.881763853e-11 0)
2.365             (-1.328358252e-10 2.64029703e-11 0)
2.37              (-1.467769821e-10 -2.947517915e-11 0)
2.375             (-1.823159007e-10 -1.214555461e-10 0)
2.38              (-3.508558521e-10 -3.642531527e-11 0)
2.385             (-1.657650871e-10 1.178974031e-11 0)
2.39              (-1.95904492e-10 -5.867940484e-11 0)
2.395             (-7.599845871e-11 -1.670722494e-11 0)
2.4               (-1.5488434e-10 -7.378699294e-11 0)
2.405             (-1.919254921e-10 -3.590821522e-11 0)
2.41              (-2.788519148e-10 8.33327019e-11 0)
2.415             (-1.474212278e-10 5.320611929e-11 0)
2.42              (-1.148561662e-10 1.709105705e-11 0)
2.425             (-1.015493041e-10 -7.034473661e-11 0)
2.43              (-8.93645623e-11 -4.423460177e-11 0)
2.435             (-3.34777004e-10 3.172380406e-11 0)
2.44              (-1.96690696e-10 7.866864255e-11 0)
2.445             (-4.431514045e-11 -3.16425205e-11 0)
2.45              (-1.285748814e-10 -8.411410616e-11 0)
2.455             (1.369814813e-11 -9.7779975e-12 0)
2.46              (-1.043050566e-10 -2.246589699e-10 0)
2.465             (-1.55032539e-10 -9.18598333e-12 0)
2.47              (-1.09713768e-10 -8.883278143e-11 0)
2.475             (-5.230595335e-11 -1.243104238e-11 0)
2.48              (-1.436269019e-10 6.770487456e-11 0)
2.485             (-1.006534141e-10 -1.97748333e-10 0)
2.49              (-3.924424504e-11 2.070007614e-11 0)
2.495             (-1.350548448e-10 -2.060523876e-10 0)
2.5               (-1.912199557e-10 -4.63247022e-11 0)
2.505             (-1.363908096e-10 3.626378479e-12 0)
2.51              (-1.104744279e-10 -9.285399999e-11 0)
2.515             (-1.225091908e-10 -1.344275782e-10 0)
2.52              (-1.058713911e-10 -6.416579461e-11 0)
2.525             (-1.062310748e-10 2.911372854e-11 0)
2.53              (6.877859154e-11 -1.672415437e-10 0)
2.535             (-2.145145462e-10 4.250187703e-11 0)
2.54              (-1.716332379e-10 -2.648049127e-11 0)
2.545             (-7.153972873e-11 -1.218720706e-10 0)
2.55              (-1.590005725e-10 -5.264757086e-11 0)
2.555             (-1.204795814e-10 8.051389974e-11 0)